# Time	forces(pressure, viscous) moment(pressure, viscous)
10	(((-60.1074 0.000381223 -4039.67) (2.58909 -0.0782727 0.00276394)) ((202.402 997.323 -0.0429653) (-0.036539 0.042794 -0.36591)))
20	(((-49.7696 -0.00514703 -3319.98) (-0.79578 0.00093192 -0.773204)) ((-300.672 1785.41 -4.2737) (0.0324625 0.578965 -0.508683)))
30	(((-14.2667 0.00028872 -556.338) (-4.59839 -0.0892542 -0.0629784)) ((182.655 206.208 0.309786) (0.0251917 -0.0781765 -0.520668)))
40	(((8.16024 -0.000278469 -476.881) (-6.52669 -0.859936 -0.855204)) ((128.037 86.1725 -0.70309) (-0.00953709 0.787621 -0.734608)))
50	(((-7.69196 -0.000487437 3265.79) (-7.27204 -1.21447 -0.519984)) ((50.1715 -1460.7 -0.398925) (0.0311473 0.537366 -0.817162)))
60	(((-5.59431 -0.000410858 2401.74) (-6.73478 -2.0613 -0.463131)) ((58.8193 -1044.6 -0.236045) (0.0687116 0.516872 -1.57896)))
70	(((-3.039 -0.000261045 1733.89) (-4.30518 -1.94091 -0.294258)) ((13.2627 -782.354 -0.307019) (0.104696 0.299025 -1.65245)))
80	(((-1.11289 -5.52142e-05 939.773) (-0.189793 -0.148994 -0.218552)) ((28.5273 -426 -0.074142) (0.0651621 0.160288 -0.366949)))
90	(((-1.10175 5.91463e-05 672.255) (3.54122 2.26436 -0.19923)) ((48.3811 -258.961 0.179788) (0.0125326 0.112867 1.16644)))
100	(((-2.76502 2.75263e-05 891.244) (5.4649 3.3883 -0.160868)) ((18.0193 -270.644 0.065298) (0.0150683 0.104318 1.83115)))
110	(((-4.48388 -8.46073e-05 1046.32) (7.11494 3.73255 -0.103405)) ((5.82514 -268.422 -0.0545779) (0.0104773 0.0971248 2.01618)))
120	(((-6.13016 -0.00022387 1096.64) (9.52794 3.70281 -0.0705032)) ((-26.1363 -261.312 -0.190036) (-0.0137532 0.102215 1.82815)))
130	(((-7.70338 -0.00034781 1299.69) (11.6416 4.02653 -0.0267837)) ((-62.0791 -371.708 -0.304447) (-0.039512 0.0986998 1.66858)))
140	(((-8.65384 -0.000429707 1442.22) (11.423 4.75579 -0.0148328)) ((-95.2003 -480.609 -0.377135) (-0.0166443 0.0755891 1.69541)))
150	(((-8.81382 -0.00048526 1357.52) (9.32149 4.60014 -0.0575869)) ((-105.259 -474.303 -0.410464) (8.44423e-05 0.0758461 1.58624)))
160	(((-8.25609 -0.000534556 1148.6) (7.49896 3.71054 -0.102535)) ((-132.403 -400.986 -0.420193) (0.00641483 0.0918029 1.22342)))
170	(((-7.60974 -0.000557083 959.07) (6.23154 2.91348 -0.12194)) ((-146.969 -331.649 -0.403327) (0.00487515 0.0942862 0.816653)))
180	(((-7.12096 -0.000556683 829.909) (5.22267 2.43517 -0.118561)) ((-149.839 -289.206 -0.37512) (0.00276023 0.0840838 0.479301)))
190	(((-6.87458 -0.000550693 752.562) (4.30113 2.06163 -0.112953)) ((-147.746 -267.577 -0.352082) (0.00113496 0.0731409 0.225611)))
200	(((-6.77959 -0.000565853 714.113) (3.51989 1.54458 -0.102529)) ((-143.375 -259.48 -0.350591) (0.00252119 0.062661 -0.0367632)))
210	(((-6.78103 -0.000608619 707.591) (2.96706 0.742884 -0.0995966)) ((-131.384 -263.352 -0.367289) (0.00686784 0.0571847 -0.421184)))
220	(((-6.78181 -0.000667343 723.526) (2.64115 -0.00715121 -0.0966876)) ((-111.472 -277.867 -0.391807) (0.0130397 0.0528843 -0.819011)))
230	(((-6.78182 -0.000668293 747.036) (2.47802 -0.49459 -0.0881748)) ((-87.4488 -296.211 -0.379065) (0.0200491 0.0471387 -1.05803)))
240	(((-6.81789 -0.00059545 762.101) (2.34053 -0.789965 -0.0818724)) ((-66.848 -310.564 -0.307071) (0.0226991 0.0413317 -1.1366)))
250	(((-6.83289 -0.000505005 763.13) (2.18953 -0.998945 -0.0818246)) ((-51.3076 -318.32 -0.220429) (0.0179548 0.0352307 -1.15679)))
260	(((-6.82913 -0.0004295 754.194) (2.03032 -1.15302 -0.0843691)) ((-39.0661 -320.703 -0.151617) (0.0101937 0.0281116 -1.16004)))
270	(((-6.80463 -0.000371867 739.665) (1.86173 -1.26257 -0.0852701)) ((-29.1992 -319.807 -0.107131) (0.00360932 0.0201866 -1.15066)))
280	(((-6.77778 -0.000323053 724.456) (1.68803 -1.3244 -0.0828954)) ((-21.2844 -318.047 -0.0789136) (-0.000578819 0.0118532 -1.12216)))
290	(((-6.74115 -0.000276357 708.912) (1.52103 -1.33786 -0.077491)) ((-14.7815 -315.864 -0.0584089) (-0.00253382 0.00351051 -1.07222)))
300	(((-6.69042 -0.000231853 692.922) (1.37107 -1.31264 -0.0701031)) ((-9.78574 -313.11 -0.0434898) (-0.00293774 -0.00458015 -1.00633)))
310	(((-6.62453 -0.000190586 676.035) (1.2414 -1.26381 -0.0616785)) ((-5.95562 -309.516 -0.0330126) (-0.00248359 -0.0122703 -0.933283)))
320	(((-6.54326 -0.00015211 658.055) (1.13047 -1.20512 -0.0528935)) ((-2.93222 -304.936 -0.0247537) (-0.00170599 -0.0194573 -0.860164)))
330	(((-6.45522 -0.000118654 639.675) (1.03477 -1.14557 -0.0441809)) ((-0.508572 -299.634 -0.0170372) (-0.000906745 -0.0261179 -0.790876)))
340	(((-6.36684 -9.11675e-05 621.541) (0.950986 -1.08953 -0.0358347)) ((1.38926 -293.924 -0.009899) (-0.000183346 -0.032221 -0.727247)))
350	(((-6.28643 -6.94346e-05 604.472) (0.877054 -1.03837 -0.027965)) ((2.81054 -288.21 -0.00425621) (0.000441067 -0.037784 -0.670042)))
360	(((-6.20983 -5.33809e-05 588.167) (0.812229 -0.992328 -0.0206263)) ((3.83084 -282.455 -0.000874347) (0.00103777 -0.0428237 -0.619484)))
370	(((-6.13783 -4.22283e-05 572.637) (0.755746 -0.951093 -0.0137897)) ((4.55872 -276.71 0.000312875) (0.00165907 -0.0473583 -0.575301)))
380	(((-6.06914 -3.50218e-05 557.662) (0.706367 -0.914085 -0.00741608)) ((5.11052 -270.917 -0.000125731) (0.00232011 -0.0514158 -0.536901)))
390	(((-6.00502 -3.03602e-05 543.227) (0.662662 -0.880611 -0.00145308)) ((5.58413 -265.088 -0.00127858) (0.00299958 -0.0550483 -0.503453)))
400	(((-5.9461 -2.68219e-05 529.364) (0.623395 -0.849953 0.00415507)) ((6.02474 -259.282 -0.00239713) (0.00371071 -0.0583139 -0.473944)))
410	(((-5.89237 -2.45593e-05 516.196) (0.587793 -0.821502 0.00937166)) ((6.43533 -253.613 -0.00341466) (0.00445674 -0.0612104 -0.447563)))
420	(((-5.84388 -2.29832e-05 503.771) (0.555208 -0.794748 0.0142252)) ((6.81802 -248.138 -0.00419662) (0.00521569 -0.063792 -0.423625)))
430	(((-5.80024 -2.19724e-05 492.08) (0.525185 -0.769313 0.0187454)) ((7.16541 -242.89 -0.00483788) (0.00597688 -0.066107 -0.401585)))
440	(((-5.76133 -2.14552e-05 481.113) (0.497406 -0.744933 0.0229679)) ((7.46918 -237.892 -0.00543003) (0.00672019 -0.068199 -0.381056)))
450	(((-5.72635 -2.12679e-05 470.852) (0.471628 -0.721428 0.026917)) ((7.72203 -233.157 -0.00602947) (0.00742172 -0.0701027 -0.361773)))
460	(((-5.69541 -2.13364e-05 461.267) (0.447601 -0.698678 0.0306292)) ((7.92062 -228.687 -0.00667148) (0.00808543 -0.0718501 -0.343536)))
470	(((-5.67007 -2.1615e-05 452.421) (0.425164 -0.676587 0.0341366)) ((8.06384 -224.512 -0.00739081) (0.00870739 -0.0734689 -0.326197)))
480	(((-5.64608 -2.21522e-05 444.137) (0.404172 -0.655072 0.0374729)) ((8.15373 -220.578 -0.00822222) (0.00928292 -0.0749844 -0.309664)))
490	(((-5.6257 -2.3099e-05 436.482) (0.384534 -0.634076 0.0406551)) ((8.19188 -216.911 -0.00922601) (0.00980723 -0.0764121 -0.293876)))
500	(((-5.60783 -2.475e-05 429.345) (0.366185 -0.613558 0.0436999)) ((8.17961 -213.467 -0.0105202) (0.010273 -0.0777665 -0.278779)))
